{"17":{"dur":1,"text":"APPLAUSE"},"19":{"dur":1,"text":"University Challenge!"},"22":{"dur":2,"text":"Asking the questions, Jeremy Paxman."},"28":{"dur":4,"text":"Hello. A Cambridge derby tonight, as two venerable colleges"},"32":{"dur":2,"text":"compete against each other for a place in the second round."},"35":{"dur":2,"text":"The winners go through automatically,"},"37":{"dur":3,"text":"the losers could qualify to play again if their score warrants it."},"40":{"dur":4,"text":"So, the key to success is for both teams to plough through"},"44":{"dur":1,"text":"as many questions as they can."},"46":{"dur":2,"text":"- In other words, get on with it. \n- LAUGHTER"},"48":{"dur":3,"text":"Now, King's College Cambridge was founded by Henry VI in 1441,"},"52":{"dur":2,"text":"although the distractions of the Wars of the Roses"},"54":{"dur":1,"text":"and his own deposition"},"56":{"dur":4,"text":"rather halted progress, which resumed under Henry VII and VIII."},"60":{"dur":2,"text":"Its architecture is world-famous,"},"62":{"dur":3,"text":"boasting perhaps the greatest example of fan vaulting in Christendom,"},"66":{"dur":2,"text":"and its alumni include Sir Robert Walpole,"},"68":{"dur":3,"text":"John Maynard Keynes, Alan Turing, Rupert Brooke,"},"72":{"dur":3,"text":"and EM Forster, who spent the best part of his life there."},"75":{"dur":3,"text":"Among more recent graduates are the novelist Zadie Smith,"},"78":{"dur":4,"text":"the model and actress Lily Cole, and the comedian David Baddiel."},"82":{"dur":2,"text":"There's a suggestion from one team member"},"84":{"dur":3,"text":"that for those who can't catch a ball or play the guitar,"},"87":{"dur":2,"text":"appearing on this competition may be a good way"},"89":{"dur":2,"text":"of attracting the attention of the members of the opposite sex."},"92":{"dur":2,"text":"- Good luck with that one, matey. \n- LAUGHTER"},"94":{"dur":1,"text":"With an average age of 19,"},"95":{"dur":1,"text":"and representing around 700 students,"},"97":{"dur":1,"text":"let's meet the King's team."},"99":{"dur":3,"text":"Hello, I'm Kevin, I'm from the US, and I do maths."},"102":{"dur":3,"text":"Hi, I'm Alessandro Mariani, I'm from Italy, and I'm studying mathematics."},"106":{"dur":2,"text":"- And this is their captain. \n- Hello, I'm Jack."},"109":{"dur":1,"text":"I'm from Nova Scotia, in Canada,"},"110":{"dur":3,"text":"and I study Human, Social and Political Sciences."},"113":{"dur":3,"text":"Hi, I'm Kamel, I'm from Kingston upon Thames, in London,"},"117":{"dur":1,"text":"and I study history."},"119":{"dur":2,"text":"APPLAUSE"},"123":{"dur":2,"text":"Now, teams from Sidney Sussex College Cambridge"},"126":{"dur":3,"text":"have been series champions twice in the past, albeit in the 1970s."},"130":{"dur":2,"text":"The second of those teams returned in 2002"},"133":{"dur":1,"text":"to win our special series"},"134":{"dur":3,"text":"to find the best team of the first 40 years of this competition."},"138":{"dur":3,"text":"So, tonight's quartet have a little bit to live up to."},"141":{"dur":3,"text":"The college was founded in 1596 by Lady Frances Sidney,"},"145":{"dur":3,"text":"Countess of Sussex, and aunt of the poet Sir Philip Sidney."},"149":{"dur":2,"text":"Oliver Cromwell was among its earliest students,"},"152":{"dur":2,"text":"and his head is reputed to have been buried"},"154":{"dur":2,"text":"beneath the college's ante-chapel,"},"156":{"dur":3,"text":"after it had been retrieved from a spike outside Westminster Hall."},"160":{"dur":1,"text":"Alumni who've avoided that fate -"},"162":{"dur":1,"text":"so far, anyway -"},"163":{"dur":2,"text":"include the TV presenter Carol Vorderman,"},"166":{"dur":1,"text":"the journalist Andrew Rawnsley,"},"167":{"dur":2,"text":"and the politician David Owen."},"170":{"dur":1,"text":"The team tell us they are here"},"171":{"dur":2,"text":"because it'll be something to put on their CVs -"},"174":{"dur":2,"text":"only if they win, presumably -"},"176":{"dur":3,"text":"and because one of their friends failed to get on Bargain Hunt."},"179":{"dur":1,"text":"LAUGHTER"},"180":{"dur":1,"text":"Also with an average age of 20,"},"182":{"dur":2,"text":"and representing around 500 students,"},"184":{"dur":1,"text":"let's meet the Sidney Sussex team."},"187":{"dur":4,"text":"Hi, I'm Nicholas Bennett, I'm from London, and I'm reading mathematics."},"191":{"dur":3,"text":"Hi, I'm Elly Thompson, I'm from Nottingham, and I study physics."},"194":{"dur":1,"text":"And this is their captain."},"196":{"dur":2,"text":"Hi, I'm Thomas Hitchcock, I'm from Ashford, in Kent,"},"198":{"dur":1,"text":"and I'm reading natural sciences."},"200":{"dur":2,"text":"Hi, I'm Dan Wilson, I'm from Buckinghamshire,"},"202":{"dur":1,"text":"and I'm reading German and Russian."},"204":{"dur":2,"text":"APPLAUSE"},"209":{"dur":3,"text":"Well, the rules are unchanging. Ten points for starters, 15 for bonuses."},"213":{"dur":3,"text":"Fingers on buzzers, here's your first starter for ten."},"216":{"dur":4,"text":"The Roman poet Ovid refers to which mythological beast as,"},"220":{"dur":3,"text":"\"semibovemque virum, semivirumque bovem\"?"},"224":{"dur":2,"text":"It was imprisoned in a labyrinth, constructed by..."},"227":{"dur":1,"text":"Minotaur."},"229":{"dur":1,"text":"The Minotaur is correct, yes."},"230":{"dur":1,"text":"APPLAUSE"},"233":{"dur":2,"text":"So, Sidney Sussex, you get the first set of bonuses."},"235":{"dur":2,"text":"They're on centenaries in 2015."},"238":{"dur":2,"text":"Firstly, a proponent of the steady-state theory,"},"241":{"dur":2,"text":"which British astronomer, born 1915,"},"244":{"dur":3,"text":"is credited with coining the phrase \"Big Bang\","},"247":{"dur":3,"text":"although he rejected the theory as unsatisfactory?"},"253":{"dur":1,"text":"I don't know."},"254":{"dur":2,"text":"Oh, who was it? It's really annoying."},"257":{"dur":1,"text":"Erm..."},"259":{"dur":2,"text":"- Shall we... It's not Hawking, is it? \n- No."},"261":{"dur":2,"text":"It's not, like, Michelson or Morley off of the experiment? No?"},"264":{"dur":2,"text":"- Let's just pass. \n- It's Sir Fred Hoyle."},"266":{"dur":3,"text":"In July 1915, the United States began an occupation"},"270":{"dur":4,"text":"of which Caribbean country, when US Marines landed at Port-au-Prince?"},"275":{"dur":2,"text":"The occupation lasted until 1934."},"277":{"dur":1,"text":"- Haiti. \n- Correct."},"278":{"dur":3,"text":"2015 is the centenary of the first British branch"},"282":{"dur":3,"text":"of which organisation, founded in Canada in 1897?"},"285":{"dur":3,"text":"Its home page says, \"We make great cookies,"},"289":{"dur":3,"text":"\"but we also use them to give you the best experience on our site.\""},"292":{"dur":1,"text":"- The Women's Institute. \n- Correct."},"294":{"dur":3,"text":"- APPLAUSE \n- Ten points for this starter question, now."},"297":{"dur":1,"text":"Which two words link the railway line"},"299":{"dur":2,"text":"that runs from Shrewsbury to Swansea via Knighton,"},"302":{"dur":3,"text":"the football club whose home ground is Tynecastle Stadium,"},"305":{"dur":3,"text":"and a novella, 1902, by Joseph Conrad, set largely..."},"310":{"dur":1,"text":"Hearts."},"312":{"dur":2,"text":"No, I'm afraid you lose five points."},"314":{"dur":1,"text":"..set largely in Africa?"},"319":{"dur":1,"text":"Heart of darkness?"},"320":{"dur":2,"text":"No, it's \"heart of\". I asked for two words."},"323":{"dur":2,"text":"I'm sorry. Anyway, ten points for this starter question."},"325":{"dur":2,"text":"\"Our current royal family doesn't have the difficulties"},"328":{"dur":2,"text":"\"in breeding that pandas do,"},"330":{"dur":3,"text":"\"but pandas and royal persons alike are expensive to conserve,"},"334":{"dur":3,"text":"\"and ill-adapted to any modern environment.\""},"337":{"dur":3,"text":"Which novelist made those comments in 2013,"},"340":{"dur":2,"text":"in a lecture entitled Royal Bodies?"},"348":{"dur":1,"text":"Will Self."},"349":{"dur":1,"text":"No. Anyone like to buzz from King's?"},"354":{"dur":1,"text":"Martin Amis."},"355":{"dur":2,"text":"No, it's Hilary Mantel. Ten points for this."},"357":{"dur":2,"text":"In terms of Internet codes and element symbols,"},"360":{"dur":2,"text":"if Austria is astatine,"},"362":{"dur":2,"text":"and Sweden is selenium,"},"365":{"dur":1,"text":"what's Portugal?"},"369":{"dur":1,"text":"- Platinum. \n- Correct."},"370":{"dur":2,"text":"APPLAUSE"},"374":{"dur":3,"text":"Your bonuses are on mythical creatures, Sidney Sussex."},"378":{"dur":2,"text":"Supposedly a horned jack rabbit,"},"380":{"dur":3,"text":"what animal has been proposed by the state of Wyoming"},"383":{"dur":1,"text":"as its official mythical creature?"},"387":{"dur":1,"text":"Nominate Bennett."},"388":{"dur":1,"text":"- Jackalope. \n- Correct."},"390":{"dur":2,"text":"Also known as the goat sucker,"},"392":{"dur":3,"text":"which supposedly vicious animal is associated with reports"},"395":{"dur":5,"text":"of sheep drained of blood in Puerto Rico and Mexico in the 1990s?"},"401":{"dur":1,"text":"Nominate Wilson."},"402":{"dur":1,"text":"- Chupacabra. \n- Correct."},"404":{"dur":3,"text":"Finally, shot in California's Six Rivers National Park,"},"408":{"dur":3,"text":"the 1967 Patterson-Gimlin film"},"411":{"dur":2,"text":"claims to show which mythical biped?"},"415":{"dur":2,"text":"- Bigfoot. \n- Bigfoot, or the Sasquatch, yes."},"417":{"dur":1,"text":"- APPLAUSE \n- Ten points for this."},"419":{"dur":2,"text":"Denoting accounts of the lives of Christian saints"},"421":{"dur":1,"text":"intended to edify the reader,"},"423":{"dur":2,"text":"what word is now often used in a pejorative sense..."},"427":{"dur":2,"text":"- Hagiography. \n- Hagiography is correct, yes."},"429":{"dur":1,"text":"APPLAUSE"},"432":{"dur":3,"text":"These bonuses, King's, are on biochemistry."},"436":{"dur":3,"text":"Which group of lipids are malleable at ambient temperature,"},"439":{"dur":1,"text":"insoluble in water,"},"441":{"dur":3,"text":"and form protective waterproof layers for plants and animals?"},"444":{"dur":2,"text":"An example is carnauba."},"450":{"dur":1,"text":"Adipose?"},"452":{"dur":1,"text":"Let's do it."},"453":{"dur":2,"text":"- Adipose. \n- No, they're waxes."},"456":{"dur":3,"text":"Secondly, consisting mainly of cetyl palmitate,"},"459":{"dur":1,"text":"which wax occurs in the cavities"},"461":{"dur":3,"text":"of the head of the whale species physeter macrocephalus?"},"468":{"dur":3,"text":"- Sperm. \n- Er, no, it's spermaceti wax."},"471":{"dur":1,"text":"And finally,"},"472":{"dur":4,"text":"a forerunner of which SI base unit was based on the intensity of light"},"477":{"dur":4,"text":"produced by burning spermaceti under defined conditions?"},"483":{"dur":2,"text":"THEY WHISPER"},"488":{"dur":3,"text":"- No, a candle is actually wax. \n- Candela? \n- No, it's now..."},"493":{"dur":2,"text":"- I don't know. \n- Do you want to go? Guess something?"},"496":{"dur":1,"text":"Nominate Lin."},"497":{"dur":1,"text":"What! I don't know."},"499":{"dur":1,"text":"LAUGHTER"},"500":{"dur":2,"text":"Do you want to nominate somebody else, or have a go yourself?"},"503":{"dur":1,"text":"- Nominate Mariani. \n- LAUGHTER"},"504":{"dur":1,"text":"Erm..."},"506":{"dur":1,"text":"- Candela? \n- Correct!"},"507":{"dur":1,"text":"LAUGHTER AND APPLAUSE"},"510":{"dur":2,"text":"Right, we're going to take a picture round now."},"512":{"dur":1,"text":"For your picture starter,"},"514":{"dur":1,"text":"you will see a map of part of the UK"},"515":{"dur":2,"text":"with three major rivers marked,"},"518":{"dur":2,"text":"all of which share a name."},"520":{"dur":2,"text":"Ten points if you can tell me what that name is."},"530":{"dur":1,"text":"Ouse."},"531":{"dur":2,"text":"Yes. Usually said \"ooze\" not \"owse\", but you're correct."},"534":{"dur":1,"text":"APPLAUSE"},"535":{"dur":1,"text":"Right, you get picture bonuses."},"537":{"dur":2,"text":"Three more sets of British rivers that share a name."},"539":{"dur":1,"text":"In each case, simply give me the name"},"541":{"dur":2,"text":"that links all the marked rivers."},"543":{"dur":2,"text":"Firstly, for five points."},"551":{"dur":1,"text":"THEY WHISPER"},"556":{"dur":2,"text":"- Any idea? No. \n- It's not..."},"558":{"dur":3,"text":"- Elly, do you know any Scottish rivers? \n- Erm... No."},"564":{"dur":2,"text":"Lee, is that not... Maybe?"},"566":{"dur":1,"text":"- Go with that. \n- OK."},"567":{"dur":1,"text":"The Lee?"},"568":{"dur":1,"text":"No, that's the Dee,"},"569":{"dur":2,"text":"the Aberdeenshire Dee, and the Welsh Dee."},"572":{"dur":1,"text":"Secondly..."},"577":{"dur":2,"text":"- That's a strange one. \n- Yeah, it's dropping down."},"581":{"dur":3,"text":"- It's coming out in Middlesbrough. \n- I'm not sure."},"584":{"dur":2,"text":"- No, Middlesbrough's... \n- Is it the Lee?"},"588":{"dur":2,"text":"- Yeah, I've got no idea. \n- Come on. \n- OK."},"590":{"dur":1,"text":"Tees?"},"592":{"dur":2,"text":"No, those are all called Derwent."},"595":{"dur":1,"text":"And finally..."},"599":{"dur":2,"text":"- Is that Avon? \n- Yeah, could be."},"601":{"dur":1,"text":"Avon?"},"602":{"dur":1,"text":"Those are all the River Avon, yes!"},"604":{"dur":2,"text":"- APPLAUSE \n- Ten points for this."},"607":{"dur":2,"text":"Imagine a simple chain of three meshing gears."},"609":{"dur":2,"text":"The first gear has 32 teeth,"},"612":{"dur":2,"text":"the second has 64 teeth,"},"614":{"dur":3,"text":"and the third, 128 teeth."},"617":{"dur":4,"text":"How many times must the first gear be rotated"},"621":{"dur":3,"text":"to turn the third gear twice in the same direction?"},"626":{"dur":1,"text":"- Eight. \n- Correct."},"627":{"dur":1,"text":"APPLAUSE"},"631":{"dur":3,"text":"Right. Your bonuses, Sidney Sussex, are on archaeological sites."},"635":{"dur":2,"text":"In each case, name the African country"},"637":{"dur":1,"text":"in which the following are located."},"639":{"dur":3,"text":"Firstly, Sufetula, Carthage, and the Colosseum of El Djem."},"642":{"dur":1,"text":"- That's Tunisia. \n- Tunisia."},"644":{"dur":1,"text":"- Tunisia. \n- Correct."},"646":{"dur":4,"text":"Secondly, Aksum, Taka, Mariam and Hadar."},"650":{"dur":1,"text":"- Ethiopia. \n- Correct."},"651":{"dur":4,"text":"And finally in which North African country are Abydos, Dahshur,"},"656":{"dur":1,"text":"and Saqqara?"},"657":{"dur":3,"text":"- Something in Egypt? Could be Sudan. \n- Yeah. \n- Egypt or Sudan?"},"661":{"dur":1,"text":"Go for Egypt? OK."},"662":{"dur":1,"text":"- Egypt. \n- Correct."},"664":{"dur":2,"text":"- APPLAUSE \n- Ten points for this."},"666":{"dur":2,"text":"Which decade saw Richard Whittington become"},"668":{"dur":1,"text":"Lord Mayor of London for the first time,"},"670":{"dur":3,"text":"and Geoffrey Chaucer's appointment as deputy forester"},"673":{"dur":2,"text":"of North Petherton in Somerset?"},"676":{"dur":2,"text":"Other events include the completion of the Wilton diptych,"},"678":{"dur":3,"text":"and the deposition of Richard II by Henry Bolingbroke."},"684":{"dur":1,"text":"The 1360s."},"686":{"dur":1,"text":"Anyone like to buzz from Sidney..."},"688":{"dur":1,"text":"The 1390s."},"689":{"dur":1,"text":"1390s is correct, yes."},"690":{"dur":1,"text":"APPLAUSE"},"694":{"dur":2,"text":"Right, you get a set of bonuses, this time, Sidney Sussex,"},"696":{"dur":2,"text":"on space exploration in 1965."},"699":{"dur":3,"text":"Firstly, the first manned mission of which NASA space programme"},"702":{"dur":1,"text":"lifted off in 1965?"},"704":{"dur":2,"text":"The programme in question followed Mercury,"},"707":{"dur":1,"text":"and preceded Apollo."},"714":{"dur":2,"text":"- I don't know. \n- Does anyone know any space? \n- I have no idea."},"718":{"dur":3,"text":"- Mercury, Apollo... Do you think anything vaguely...? \n- No."},"721":{"dur":1,"text":"Think of..."},"723":{"dur":1,"text":"- Come on. \n- Discovery."},"725":{"dur":1,"text":"No, they were Gemini missions."},"727":{"dur":3,"text":"In March 1965, which Soviet cosmonaut"},"730":{"dur":3,"text":"made the first spacewalk when he spent 12 minutes"},"733":{"dur":2,"text":"outside the capsule Voshkod Two?"},"735":{"dur":3,"text":"- He was the first in space, though. \n- It's not... \n- It's not Gagarin."},"738":{"dur":2,"text":"No, no. He was just in a little box."},"740":{"dur":2,"text":"Do we have any other Soviet cosmonauts?"},"743":{"dur":2,"text":"Dan's the Russian(!)"},"745":{"dur":2,"text":"- Shall we just go for that? \n- You could just say it anyway. \n- OK."},"748":{"dur":1,"text":"- Yuri Gagarin. \n- No, it wasn't."},"750":{"dur":1,"text":"It was Alexi Leonov."},"751":{"dur":2,"text":"And finally, in July 1965,"},"753":{"dur":3,"text":"Mariner Four took the first close-up photographs"},"757":{"dur":1,"text":"of the surface of which planet?"},"762":{"dur":1,"text":"Which way, which direction do you reckon?"},"764":{"dur":2,"text":"- Mars, what do you think? \n- Yeah, go for Mars, probably."},"766":{"dur":1,"text":"- Mars. \n- Correct."},"768":{"dur":2,"text":"- APPLAUSE \n- Ten points for this. Listen carefully."},"770":{"dur":2,"text":"In physics, the equation for calculating the impulse of a force"},"773":{"dur":3,"text":"can be derived from Newton's second law of motion."},"776":{"dur":3,"text":"In what SI derived unit is an impulse expressed?"},"782":{"dur":1,"text":"Erm..."},"783":{"dur":3,"text":"Kilogram times metre divided by second?"},"787":{"dur":2,"text":"- Yes. Kilogram metre per second. \n- APPLAUSE"},"789":{"dur":2,"text":"So you get a set of bonuses, King's."},"791":{"dur":1,"text":"They're on an artist."},"793":{"dur":3,"text":"Firstly, for five points, born in northern France in 1684,"},"796":{"dur":3,"text":"which painter is most associated with the Fete Galante style,"},"800":{"dur":2,"text":"in which well-dressed young people are depicted"},"803":{"dur":2,"text":"in idealised pastoral settings?"},"807":{"dur":1,"text":"I don't know."},"808":{"dur":3,"text":"THEY WHISPER"},"812":{"dur":2,"text":"- I'd say Meniere. Meniere. \n- Meniere? \n- Mm."},"815":{"dur":2,"text":"- Meniere. \n- No, it's Watteau."},"817":{"dur":5,"text":"Secondly, in 1717 Watteau became a full member of the French Academy"},"822":{"dur":3,"text":"with a work portraying the embarkation for which island?"},"825":{"dur":1,"text":"In classical myth,"},"827":{"dur":3,"text":"it's regarded as the birthplace of Aphrodite, or Venus."},"833":{"dur":1,"text":"- Crete? \n- Cyprus?"},"836":{"dur":2,"text":"- Cyprus. \n- No, it's Kythera."},"839":{"dur":3,"text":"And finally, practised by artists such as Watteau,"},"842":{"dur":3,"text":"singerie is a form of rococo decoration"},"845":{"dur":4,"text":"featuring what animals in human costume, playing human roles?"},"851":{"dur":1,"text":"Erm."},"853":{"dur":1,"text":"- It's, erm... \n- Birds?"},"856":{"dur":1,"text":"- Birds. \n- No, they're monkeys."},"858":{"dur":2,"text":"\"Singes\". Right, ten points for this."},"860":{"dur":3,"text":"Of which event of 1819 did Mary Shelley write,"},"863":{"dur":3,"text":"\"It roused in my husband violent emotions of indignation and...\""},"869":{"dur":2,"text":"The eruption of Krakatoa?"},"871":{"dur":2,"text":"No, I'm afraid you lose five points."},"873":{"dur":2,"text":"\"It aroused in my husband violent emotions of indignation"},"876":{"dur":2,"text":"\"and compassion. Inspired by these feelings,"},"878":{"dur":2,"text":"\"he wrote The Mask Of Anarchy.\""},"886":{"dur":1,"text":"None of you know, Sidney Sussex?"},"889":{"dur":1,"text":"French Revolution?"},"890":{"dur":1,"text":"No, it was the Peterloo massacre."},"892":{"dur":1,"text":"Right, ten points for this."},"893":{"dur":3,"text":"In 2014, what name was assigned to the previously undetected"},"896":{"dur":2,"text":"flaw that exists in a piece of open source software?"},"899":{"dur":3,"text":"Described as catastrophic by one security expert,"},"903":{"dur":1,"text":"it enables hackers to steal..."},"906":{"dur":1,"text":"- Heartbleed. \n- Yes."},"908":{"dur":2,"text":"APPLAUSE"},"910":{"dur":3,"text":"These bonuses, King's Cambridge, are on East Asian history."},"914":{"dur":5,"text":"Born in 1130, Master Zhou was a key figure in a system of thought known"},"919":{"dur":4,"text":"in the West by what hyphenated name after a long-influential philosophy?"},"924":{"dur":5,"text":"It is described often as a response to the ideas of Taoism and Buddhism."},"932":{"dur":2,"text":"- Confucianism? \n- It's not Confucianism."},"936":{"dur":1,"text":"- It's hyphenated. \n- Erm..."},"943":{"dur":1,"text":"Don't know."},"944":{"dur":2,"text":"It was Neo-Confucianism."},"946":{"dur":4,"text":"Neo-Confucianism was the state ideology of the Joseon dynasty"},"951":{"dur":4,"text":"of Korea, founded soon after the start of the Ming dynasty in China."},"955":{"dur":1,"text":"In which century was that?"},"962":{"dur":2,"text":"- The 15th? \n- No, it was the 14th."},"965":{"dur":3,"text":"Neo-Confucianism flourished under official patronage during"},"968":{"dur":3,"text":"which period of Japanese history, beginning in 1603?"},"972":{"dur":2,"text":"You may give either of its two names,"},"974":{"dur":3,"text":"one after its founder, the other after its de facto capital."},"978":{"dur":2,"text":"- Edo. \n- Correct. Or Tokugawa. \n- APPLAUSE"},"981":{"dur":2,"text":"We're going to take a music round now. For your music starter"},"983":{"dur":2,"text":"you'll hear an excerpt from a 20th-century opera."},"986":{"dur":3,"text":"For ten points, please identify the composer."},"989":{"dur":3,"text":"MUSIC: Akhnaten Prelude"},"995":{"dur":1,"text":"Is it John Adams?"},"997":{"dur":1,"text":"Anyone like to buzz from Sidney Sussex?"},"999":{"dur":1,"text":"You can hear a little more."},"1008":{"dur":1,"text":"Britten?"},"1009":{"dur":3,"text":"No, that was Philip Glass' Akhnaten."},"1013":{"dur":2,"text":"So we're going to take music bonuses in a moment or two."},"1016":{"dur":3,"text":"In the meantime, fingers on buzzers, here's another starter question."},"1019":{"dur":4,"text":"\"The graphic, linear equivalent of the sensation of flight\" is how"},"1024":{"dur":4,"text":"which artist described paper cuts he created in the mid-20th century..."},"1031":{"dur":1,"text":"Miro?"},"1032":{"dur":1,"text":"No, I'm afraid you lose five points."},"1034":{"dur":2,"text":"..when ill-health prevented him from painting?"},"1039":{"dur":2,"text":"- Matisse? \n- Matisse is correct, yes."},"1042":{"dur":2,"text":"APPLAUSE"},"1045":{"dur":1,"text":"So you get the music bonuses."},"1046":{"dur":2,"text":"They're three more excerpts from operas that,"},"1048":{"dur":4,"text":"like Philip Glass' Akhnaten that we just heard, are set in Egypt."},"1053":{"dur":3,"text":"Five points each composer you can identify. Firstly..."},"1056":{"dur":3,"text":"MUSIC: Julius Caesar In Egypt"},"1077":{"dur":3,"text":"I think we might as well go for it. Yep? Mary Of Egypt?"},"1080":{"dur":1,"text":"No, I was looking for the composer."},"1082":{"dur":3,"text":"But it's Handel, it's from his Julius Caesar In Egypt. Secondly..."},"1085":{"dur":3,"text":"MUSIC: Thais, Act II: Mediation"},"1114":{"dur":4,"text":"MUSIC ENDS"},"1118":{"dur":1,"text":"Come on."},"1119":{"dur":3,"text":"- OK. Nominate Thompson. \n- Massenet? \n- Massenet is correct."},"1122":{"dur":3,"text":"It's from Thais. And finally..."},"1125":{"dur":3,"text":"MUSIC: Aida, Act II: Gloria All'egitto"},"1134":{"dur":2,"text":"- Verdi? \n- It is indeed. Of course it is from Aida."},"1137":{"dur":2,"text":"- APPLAUSE \n- Ten points for this."},"1139":{"dur":3,"text":"\"One of the very few contemporary economists eager to revive"},"1143":{"dur":3,"text":"\"the old-fashioned spirit of political economy.\""},"1146":{"dur":4,"text":"Those words appear in a review of Capital In The 21st Century..."},"1152":{"dur":1,"text":"Thomas Piketty?"},"1154":{"dur":1,"text":"Thomas Piketty is correct, yes."},"1155":{"dur":2,"text":"APPLAUSE"},"1158":{"dur":2,"text":"These bonuses are on Tilda Swinton, Sidney Sussex."},"1160":{"dur":2,"text":"Tilda Swinton played the mother of the title"},"1162":{"dur":3,"text":"character in which film of 2011, based on a novel by Lionel Shriver?"},"1166":{"dur":1,"text":"We Need To Talk About Kevin."},"1167":{"dur":2,"text":"- We Need To Talk About Kevin. \n- Correct."},"1169":{"dur":3,"text":"Playing the part of Lena, Swinton's first of many collaborations"},"1173":{"dur":5,"text":"with Derek Jarman was a 1986 film about which Italian painter?"},"1178":{"dur":5,"text":"His work, Boy With A Basket Of Fruit, was imitated for the poster."},"1183":{"dur":1,"text":"Basket of fruit?"},"1186":{"dur":1,"text":"I don't know."},"1191":{"dur":1,"text":"Caravaggio?"},"1192":{"dur":2,"text":"- Caravaggio. \n- Correct."},"1195":{"dur":3,"text":"In Love Is The Devil, Swinton played Muriel Belcher,"},"1198":{"dur":2,"text":"the owner of the Colony Room Club in Soho."},"1200":{"dur":1,"text":"The film centred on which painter,"},"1202":{"dur":2,"text":"who was a frequent visitor to the club?"},"1206":{"dur":1,"text":"It might be Francis Bacon."},"1207":{"dur":2,"text":"Yeah? OK. Francis Bacon?"},"1210":{"dur":1,"text":"Correct. Ten points for this."},"1211":{"dur":3,"text":"- APPLAUSE \n- In 1788, which Italian was appointed"},"1215":{"dur":3,"text":"Austrian Imperial Court Composer and Music Director?"},"1218":{"dur":2,"text":"He was later fictionalised..."},"1220":{"dur":1,"text":"Salieri?"},"1221":{"dur":1,"text":"Correct."},"1222":{"dur":2,"text":"APPLAUSE"},"1225":{"dur":3,"text":"These bonuses, King's, are on chemical elements."},"1228":{"dur":2,"text":"With the atomic number 45,"},"1230":{"dur":3,"text":"which element is one of the rarest non-radioactive metals"},"1234":{"dur":3,"text":"and is used as a hardener for platinum and palladium,"},"1237":{"dur":2,"text":"for example, in catalytic converters?"},"1240":{"dur":1,"text":"- Titanium? \n- Titanium?"},"1246":{"dur":1,"text":"Titanium?"},"1247":{"dur":1,"text":"No, it's rhodium."},"1248":{"dur":2,"text":"Chiefly obtained from natural brine deposits,"},"1251":{"dur":2,"text":"which element has the atomic number 35?"},"1254":{"dur":3,"text":"Its compounds are used as pesticides, flame retardants"},"1257":{"dur":1,"text":"and as a sedative."},"1261":{"dur":1,"text":"Phosphorous?"},"1263":{"dur":1,"text":"I don't know."},"1266":{"dur":3,"text":"I would say it's phosphorous because pesticides are phosphorous."},"1269":{"dur":1,"text":"- Are you sure? \n- I think so."},"1271":{"dur":2,"text":"That's the best I've got. Phosphorous?"},"1273":{"dur":1,"text":"No, it's bromine."},"1275":{"dur":3,"text":"And finally, which silvery metal has the atomic number 25?"},"1278":{"dur":1,"text":"Essential to plant growth,"},"1280":{"dur":4,"text":"it's alloyed with steel to impart a hard yet pliant quality."},"1287":{"dur":1,"text":"Potassium? No, it can't..."},"1292":{"dur":1,"text":"- Try that. I don't know. \n- Potassium?"},"1294":{"dur":1,"text":"No, it's manganese."},"1296":{"dur":2,"text":"We're going to take a picture round now."},"1298":{"dur":1,"text":"For your picture starter,"},"1300":{"dur":1,"text":"you'll see a still from a film."},"1301":{"dur":2,"text":"For ten points, please name the film."},"1305":{"dur":2,"text":"Blade Runner?"},"1307":{"dur":1,"text":"Blade Runner is correct, yes."},"1309":{"dur":2,"text":"APPLAUSE"},"1312":{"dur":2,"text":"That was set in 2019."},"1314":{"dur":2,"text":"It was the prediction of how Los Angeles will"},"1317":{"dur":1,"text":"look four years from now, therefore."},"1319":{"dur":3,"text":"Your picture bonuses are three more visions of cities in the future."},"1322":{"dur":2,"text":"In each case, simply identify the film"},"1325":{"dur":2,"text":"in which each cityscape appears."},"1327":{"dur":1,"text":"Firstly, for five."},"1336":{"dur":1,"text":"The Minority Report?"},"1338":{"dur":2,"text":"No, that's The Fifth Element by Luc Besson -"},"1341":{"dur":3,"text":"a vision of New York City in the 23rd century. Secondly."},"1347":{"dur":1,"text":"Idiocracy."},"1350":{"dur":1,"text":"Idiocracy."},"1351":{"dur":1,"text":"Idiocracy?"},"1353":{"dur":1,"text":"No, that's Logan's Run."},"1355":{"dur":4,"text":"And finally, you may give me either here the specific film"},"1359":{"dur":1,"text":"from which this still is taken,"},"1361":{"dur":2,"text":"or the franchise of which it's a part."},"1365":{"dur":1,"text":"Looks like Star Wars to me."},"1366":{"dur":2,"text":"- Looks like Star Wars. \n- But it's not Star Wars,"},"1369":{"dur":1,"text":"- it's cities in the future. \n- Go for Alien."},"1373":{"dur":1,"text":"Alien franchise?"},"1375":{"dur":1,"text":"No, it's The Matrix."},"1377":{"dur":1,"text":"Ten points for this."},"1378":{"dur":4,"text":"Which major city links Mozart's Symphony number 31,"},"1382":{"dur":3,"text":"Haydn's symphonies from number 82 to 87,"},"1386":{"dur":4,"text":"and an orchestral piece of 1928 by George Gershwin?"},"1392":{"dur":1,"text":"Paris?"},"1393":{"dur":1,"text":"Paris is right, yes."},"1394":{"dur":2,"text":"APPLAUSE"},"1398":{"dur":4,"text":"Sidney Sussex, these bonuses are on events since 2001."},"1402":{"dur":2,"text":"In each case, give the year that saw all of the following."},"1405":{"dur":3,"text":"Firstly, President Akayev flees Kyrgyzstan"},"1408":{"dur":2,"text":"after the first Tulip Revolution,"},"1411":{"dur":3,"text":"Angela Merkel becomes Germany's first female chancellor,"},"1414":{"dur":2,"text":"and Joseph Ratzinger is elected Pope."},"1419":{"dur":1,"text":"2005?"},"1420":{"dur":1,"text":"Correct."},"1421":{"dur":2,"text":"Secondly, Kosovo formally declares independence"},"1423":{"dur":3,"text":"from Serbia, Fidel Castro resigns as president of Cuba"},"1427":{"dur":3,"text":"and the Icelandic government takes control of much of the banking"},"1430":{"dur":2,"text":"sector after a financial crisis."},"1432":{"dur":2,"text":"THEY CONFER"},"1436":{"dur":1,"text":"2008?"},"1437":{"dur":1,"text":"Correct."},"1439":{"dur":3,"text":"The Tunisian government falls after violent protests,"},"1442":{"dur":2,"text":"South Sudan becomes independent,"},"1444":{"dur":3,"text":"and the News Of The World appears for the last time."},"1453":{"dur":1,"text":"2011?"},"1454":{"dur":1,"text":"Correct."},"1455":{"dur":2,"text":"3\u00bd minutes to go, ten points for this."},"1458":{"dur":2,"text":"The centre of an Arab kingdom in Roman times"},"1460":{"dur":2,"text":"and lying around 200km south of Amman in Jordan,"},"1463":{"dur":2,"text":"which UNESCO World Heritage site..."},"1467":{"dur":1,"text":"- Petra? \n- Petra is correct..."},"1469":{"dur":2,"text":"- APPLAUSE \n- ..known as the Rose City."},"1473":{"dur":3,"text":"Your bonuses are on the monarchies, Sidney Sussex."},"1477":{"dur":3,"text":"In each case, state what relation each of the following women"},"1480":{"dur":2,"text":"were to King Edward IV."},"1483":{"dur":2,"text":"Firstly, Cecily Neville."},"1487":{"dur":3,"text":"Erm, sister-in-law, I think?"},"1490":{"dur":1,"text":"Sister-in-law?"},"1491":{"dur":1,"text":"No, that was his mother."},"1493":{"dur":2,"text":"- LAUGHTER \n- Secondly, Margaret Tudor."},"1498":{"dur":1,"text":"I have no idea."},"1499":{"dur":2,"text":"Erm, great-aunt, I think."},"1501":{"dur":2,"text":"- THEY LAUGH \n- Great-aunt?"},"1504":{"dur":1,"text":"No, she was granddaughter."},"1505":{"dur":2,"text":"And finally, Elizabeth Woodville."},"1508":{"dur":1,"text":"Wife."},"1510":{"dur":1,"text":"- Are you sure? \n- Yeah, I'm sure. \n- Wife?"},"1512":{"dur":1,"text":"Wife is right, yes."},"1513":{"dur":2,"text":"APPLAUSE"},"1515":{"dur":1,"text":"Right, ten points for this,"},"1517":{"dur":3,"text":"what English past participle translates the French word interdit,"},"1520":{"dur":3,"text":"the Italian vietato,"},"1523":{"dur":2,"text":"and the German..."},"1526":{"dur":1,"text":"Forbidden?"},"1527":{"dur":1,"text":"Yes, or prohibited, yes."},"1529":{"dur":3,"text":"So, you get a set of bonuses on elasticity, King's."},"1533":{"dur":2,"text":"Which numerical constant describes the elastic"},"1535":{"dur":3,"text":"properties of a solid or fluid which is under pressure on all surfaces?"},"1539":{"dur":2,"text":"It's often represented by either the letter K"},"1542":{"dur":1,"text":"or the letter B."},"1545":{"dur":1,"text":"It can be both."},"1546":{"dur":1,"text":"- I don't know. \n- Maybe it's..."},"1550":{"dur":1,"text":"It's constant. I don't know."},"1551":{"dur":1,"text":"Hooke's?"},"1552":{"dur":1,"text":"No, it's bulk modulus."},"1554":{"dur":3,"text":"The reciprocal of the bulk modulus of a substance describes what"},"1557":{"dur":1,"text":"property of that substance?"},"1562":{"dur":1,"text":"Stiffness?"},"1566":{"dur":1,"text":"Stiffness?"},"1567":{"dur":1,"text":"No, it's compressibility."},"1569":{"dur":1,"text":"The bulk modulus, Young's modulus"},"1571":{"dur":3,"text":"and the shear modulus are all particular expressions of which law,"},"1575":{"dur":4,"text":"formulated in 1660 and named after an English scientist?"},"1579":{"dur":1,"text":"This is Hooke's Law."},"1580":{"dur":1,"text":"It is Hooke's Law, yes."},"1582":{"dur":2,"text":"- APPLAUSE \n- You don't need to be so dismissive."},"1584":{"dur":2,"text":"- LAUGHTER \n- Ten points for this."},"1586":{"dur":2,"text":"Beating the previous record holder,"},"1588":{"dur":3,"text":"Delia Smith's How To Cook Book Two,"},"1591":{"dur":5,"text":"whose 2013 memoir, My Autobiography, became the UK's fastest selling"},"1597":{"dur":1,"text":"non-fiction book on record?"},"1603":{"dur":1,"text":"Morrissey?"},"1604":{"dur":1,"text":"No."},"1609":{"dur":1,"text":"Alex Ferguson?"},"1610":{"dur":1,"text":"Yes."},"1611":{"dur":2,"text":"APPLAUSE"},"1615":{"dur":3,"text":"Sidney Sussex, these bonuses are on the United Arab Emirates."},"1619":{"dur":2,"text":"Firstly, ruled by the Qawasim dynasty,"},"1621":{"dur":3,"text":"which Emirate takes its name from the Arabic for the Eastern?"},"1625":{"dur":1,"text":"It's been a regular venue for cricket,"},"1626":{"dur":3,"text":"hosting its first one-day international in 1984."},"1631":{"dur":1,"text":"..would know this."},"1634":{"dur":1,"text":"We don't. Do you have any ideas?"},"1640":{"dur":1,"text":"Nominate Wilson."},"1641":{"dur":1,"text":"Dhofar?"},"1642":{"dur":1,"text":"No, it's Sharjah."},"1644":{"dur":2,"text":"Secondly, completely surrounded by Sharjah,"},"1646":{"dur":4,"text":"which Emirate is the smallest state in the UAE, as well as the poorest?"},"1652":{"dur":1,"text":"I don't know."},"1654":{"dur":1,"text":"Astana?"},"1656":{"dur":1,"text":"No, it's Ajman."},"1657":{"dur":3,"text":"Which Emirate has the largest city of the Federation and has benefited"},"1660":{"dur":5,"text":"greatly from the discovery of the Fateh offshore oilfield in 1966?"},"1665":{"dur":2,"text":"- Abu Dhabi. \n- It's got to be. \n- Dubai."},"1668":{"dur":1,"text":"GONG BELLOWS"},"1669":{"dur":2,"text":"- APPLAUSE \n- Dubai is correct,"},"1672":{"dur":2,"text":"but you were after the gong."},"1674":{"dur":2,"text":"And at the gong, King's College Cambridge have 60,"},"1676":{"dur":2,"text":"Sidney Sussex have 195."},"1679":{"dur":2,"text":"You never really got going, King's, did you?"},"1682":{"dur":3,"text":"That's how it crumbles sometimes, but thank you for joining us."},"1685":{"dur":1,"text":"Sidney Sussex, congratulations to you."},"1687":{"dur":2,"text":"We shall look forward to seeing you in round two."},"1689":{"dur":3,"text":"I hope you can join us next time for another first-round match."},"1693":{"dur":3,"text":"- But until then, it's goodbye from King's College Cambridge. \n- Goodbye."},"1696":{"dur":3,"text":"- It's goodbye from Sidney Sussex College Cambridge. \n- Goodbye."},"1699":{"dur":1,"text":"And it's goodbye from me. Goodbye."},"1701":{"dur":2,"text":"APPLAUSE"}}